<?xml version="1.0" encoding="UTF-8"?>

<!-- generated on 2024-01-11 15:48:59 by Eclipse SUMO sumo Version 1.15.0
<configuration xmlns:xsi="http://www.w3.org/2001/XMLSchema-instance" xsi:noNamespaceSchemaLocation="http://sumo.dlr.de/xsd/sumoConfiguration.xsd">

    <input>
        <net-file value="mytest.net.xml"/>
        <route-files value="mytest.rou.xml"/>
    </input>

    <output>
        <queue-output value="mytest_queue.xml"/>
        <queue-output.period value="100"/>
        <summary-output value="mytest_summary.xml"/>
        <summary-output.period value="100"/>
        <edgedata-output value="mytest_edge.xml"/>
        <lanedata-output value="mytest_lane.xml"/>
    </output>

    <time>
        <begin value="200"/>
        <end value="3600"/>
    </time>

</configuration>
-->

<queue-export xmlns:xsi="http://www.w3.org/2001/XMLSchema-instance" xsi:noNamespaceSchemaLocation="http://sumo.dlr.de/xsd/queue_file.xsd">
    <data timestep="200.00">
        <lanes/>
    </data>
    <data timestep="300.00">
        <lanes>
            <lane id="3500006650_2i_2" queueing_time="5.00" queueing_length="6.00" queueing_length_experimental="6.00"/>
            <lane id="3500006901_2i_1" queueing_time="7.00" queueing_length="6.00" queueing_length_experimental="6.00"/>
            <lane id="3500007100_1i_2" queueing_time="5.00" queueing_length="6.00" queueing_length_experimental="6.00"/>
            <lane id="3500007100_1i_3" queueing_time="16.00" queueing_length="6.00" queueing_length_experimental="6.00"/>
            <lane id="3500007100_2i_2" queueing_time="23.00" queueing_length="6.00" queueing_length_experimental="6.00"/>
            <lane id="3500007300_1i_0" queueing_time="17.00" queueing_length="6.00" queueing_length_experimental="6.00"/>
            <lane id="3500007300_2i_3" queueing_time="16.00" queueing_length="13.50" queueing_length_experimental="13.50"/>
            <lane id="3500007500_2i_1" queueing_time="8.00" queueing_length="6.00" queueing_length_experimental="6.00"/>
            <lane id="3500007900_1i_1" queueing_time="49.00" queueing_length="6.00" queueing_length_experimental="6.00"/>
            <lane id="3500008000_1i_0" queueing_time="33.00" queueing_length="6.00" queueing_length_experimental="6.00"/>
            <lane id="3500058700_1i_1" queueing_time="22.00" queueing_length="6.00" queueing_length_experimental="6.00"/>
            <lane id="3500059800_1i_0" queueing_time="1.00" queueing_length="5.11" queueing_length_experimental="5.11"/>
            <lane id="3500060600_2i_0" queueing_time="14.00" queueing_length="6.00" queueing_length_experimental="6.00"/>
            <lane id="3500060600_3i_1" queueing_time="10.00" queueing_length="6.00" queueing_length_experimental="6.00"/>
            <lane id="3500060800_1i_0" queueing_time="16.00" queueing_length="6.00" queueing_length_experimental="6.00"/>
            <lane id="3500060800_1i_1" queueing_time="16.00" queueing_length="6.00" queueing_length_experimental="6.00"/>
            <lane id="3500060850_1i_2" queueing_time="0.00" queueing_length="0.00" queueing_length_experimental="6.04"/>
            <lane id="3500060860_0i_1" queueing_time="0.00" queueing_length="0.00" queueing_length_experimental="6.15"/>
            <lane id="3500062100_1i_2" queueing_time="40.00" queueing_length="6.00" queueing_length_experimental="6.00"/>
            <lane id="3500062500_1i_4" queueing_time="30.00" queueing_length="6.00" queueing_length_experimental="6.00"/>
            <lane id="3500062500_2i_1" queueing_time="16.00" queueing_length="13.51" queueing_length_experimental="13.51"/>
            <lane id="3500065800_1i_1" queueing_time="41.00" queueing_length="6.00" queueing_length_experimental="6.00"/>
            <lane id="3500065800_3i_0" queueing_time="9.00" queueing_length="6.00" queueing_length_experimental="6.00"/>
            <lane id="3500302300_1i_0" queueing_time="1.00" queueing_length="6.01" queueing_length_experimental="6.01"/>
            <lane id="3500302300_1i_1" queueing_time="7.00" queueing_length="6.00" queueing_length_experimental="6.00"/>
            <lane id="3500302300_1i_2" queueing_time="11.00" queueing_length="6.00" queueing_length_experimental="6.00"/>
            <lane id="3510000200_1i_2" queueing_time="46.00" queueing_length="6.00" queueing_length_experimental="6.00"/>
            <lane id="3510000200_1i_3" queueing_time="14.00" queueing_length="6.00" queueing_length_experimental="6.00"/>
            <lane id="3510000300_1i_2" queueing_time="36.00" queueing_length="13.50" queueing_length_experimental="13.50"/>
            <lane id="3510021200_2i_0" queueing_time="14.00" queueing_length="6.00" queueing_length_experimental="6.00"/>
            <lane id="3510021400_1i_1" queueing_time="55.00" queueing_length="6.00" queueing_length_experimental="6.00"/>
            <lane id="3510021400_1i_2" queueing_time="52.00" queueing_length="6.00" queueing_length_experimental="6.00"/>
        </lanes>
    </data>
    <data timestep="400.00">
        <lanes>
            <lane id="3500006660_0i_0" queueing_time="13.00" queueing_length="6.00" queueing_length_experimental="6.00"/>
            <lane id="3500006660_0i_1" queueing_time="10.00" queueing_length="6.00" queueing_length_experimental="6.00"/>
            <lane id="3500006660_2i_0" queueing_time="36.00" queueing_length="6.00" queueing_length_experimental="6.00"/>
            <lane id="3500006700_2i_1" queueing_time="4.00" queueing_length="6.00" queueing_length_experimental="6.00"/>
            <lane id="3500007100_1i_0" queueing_time="7.00" queueing_length="6.00" queueing_length_experimental="6.00"/>
            <lane id="3500007100_3i_0" queueing_time="4.00" queueing_length="6.00" queueing_length_experimental="6.00"/>
            <lane id="3500007100_3i_1" queueing_time="10.00" queueing_length="6.00" queueing_length_experimental="6.00"/>
            <lane id="3500007500_1i_2" queueing_time="62.00" queueing_length="13.50" queueing_length_experimental="13.50"/>
            <lane id="3500007500_1i_3" queueing_time="59.00" queueing_length="6.00" queueing_length_experimental="6.00"/>
            <lane id="3500007500_2i_1" queueing_time="22.00" queueing_length="6.00" queueing_length_experimental="6.00"/>
            <lane id="3500007500_2i_2" queueing_time="6.00" queueing_length="6.00" queueing_length_experimental="6.00"/>
            <lane id="3500007900_1i_1" queueing_time="48.00" queueing_length="13.50" queueing_length_experimental="13.50"/>
            <lane id="3500007900_2i_0" queueing_time="25.00" queueing_length="6.00" queueing_length_experimental="6.00"/>
            <lane id="3500007900_2i_1" queueing_time="31.00" queueing_length="13.50" queueing_length_experimental="13.50"/>
            <lane id="3500007900_2i_2" queueing_time="28.00" queueing_length="6.00" queueing_length_experimental="6.00"/>
            <lane id="3500051802_3i_3" queueing_time="0.00" queueing_length="0.00" queueing_length_experimental="6.18"/>
            <lane id="3500058700_1i_0" queueing_time="35.00" queueing_length="13.50" queueing_length_experimental="13.50"/>
            <lane id="3500058700_1i_1" queueing_time="44.00" queueing_length="6.00" queueing_length_experimental="6.00"/>
            <lane id="3500058700_3i_1" queueing_time="13.00" queueing_length="6.00" queueing_length_experimental="6.00"/>
            <lane id="3500058900_2i_0" queueing_time="26.00" queueing_length="6.00" queueing_length_experimental="6.00"/>
            <lane id="3500058900_2i_2" queueing_time="30.00" queueing_length="6.00" queueing_length_experimental="6.00"/>
            <lane id="3500059800_0i_0" queueing_time="15.00" queueing_length="13.50" queueing_length_experimental="13.50"/>
            <lane id="3500059800_0i_1" queueing_time="8.00" queueing_length="6.00" queueing_length_experimental="6.00"/>
            <lane id="3500059850_0i_1" queueing_time="1.00" queueing_length="6.00" queueing_length_experimental="6.00"/>
            <lane id="3500059850_1i_1" queueing_time="0.00" queueing_length="0.00" queueing_length_experimental="6.07"/>
            <lane id="3500060600_1i_0" queueing_time="22.00" queueing_length="6.00" queueing_length_experimental="6.00"/>
            <lane id="3500060600_2i_0" queueing_time="10.00" queueing_length="6.00" queueing_length_experimental="6.00"/>
            <lane id="3500060600_3i_1" queueing_time="13.00" queueing_length="6.00" queueing_length_experimental="6.00"/>
            <lane id="3500060660_0i_0" queueing_time="0.00" queueing_length="0.00" queueing_length_experimental="6.13"/>
            <lane id="3500060800_0i_0" queueing_time="2.00" queueing_length="6.00" queueing_length_experimental="6.00"/>
            <lane id="3500060800_2i_0" queueing_time="18.00" queueing_length="21.00" queueing_length_experimental="21.00"/>
            <lane id="3500062100_1i_1" queueing_time="62.00" queueing_length="6.00" queueing_length_experimental="6.00"/>
            <lane id="3500062500_1i_1" queueing_time="42.00" queueing_length="6.00" queueing_length_experimental="6.00"/>
            <lane id="3500062500_2i_1" queueing_time="8.00" queueing_length="6.00" queueing_length_experimental="6.00"/>
            <lane id="3500065800_1i_1" queueing_time="29.00" queueing_length="6.00" queueing_length_experimental="6.00"/>
            <lane id="3500065800_1i_2" queueing_time="37.00" queueing_length="6.00" queueing_length_experimental="6.00"/>
            <lane id="3500065800_1i_3" queueing_time="4.00" queueing_length="6.00" queueing_length_experimental="6.00"/>
            <lane id="3500065800_1i_4" queueing_time="33.00" queueing_length="13.50" queueing_length_experimental="13.50"/>
            <lane id="3500065800_2i_2" queueing_time="31.00" queueing_length="13.50" queueing_length_experimental="13.50"/>
            <lane id="3500065800_3i_0" queueing_time="6.00" queueing_length="6.00" queueing_length_experimental="6.00"/>
            <lane id="3500302300_2i_1" queueing_time="15.00" queueing_length="6.00" queueing_length_experimental="6.00"/>
            <lane id="3510000200_1i_0" queueing_time="58.00" queueing_length="6.00" queueing_length_experimental="6.00"/>
            <lane id="3510000200_1i_2" queueing_time="58.00" queueing_length="6.00" queueing_length_experimental="6.00"/>
            <lane id="3510000200_3i_0" queueing_time="14.00" queueing_length="6.00" queueing_length_experimental="6.00"/>
            <lane id="3510000250_2i_0" queueing_time="23.00" queueing_length="6.00" queueing_length_experimental="6.00"/>
            <lane id="3510000250_2i_1" queueing_time="3.00" queueing_length="6.00" queueing_length_experimental="6.00"/>
            <lane id="3510000250_2i_2" queueing_time="26.00" queueing_length="6.00" queueing_length_experimental="6.00"/>
            <lane id="3510000300_1i_2" queueing_time="54.00" queueing_length="28.50" queueing_length_experimental="28.50"/>
            <lane id="3510000400_2i_2" queueing_time="33.00" queueing_length="13.50" queueing_length_experimental="13.50"/>
            <lane id="3510021200_1i_0" queueing_time="58.00" queueing_length="13.50" queueing_length_experimental="13.50"/>
            <lane id="3510021200_1i_1" queueing_time="43.00" queueing_length="6.00" queueing_length_experimental="6.00"/>
            <lane id="3510021200_3i_1" queueing_time="5.00" queueing_length="6.00" queueing_length_experimental="6.00"/>
            <lane id="3510021300_2i_0" queueing_time="19.00" queueing_length="6.00" queueing_length_experimental="6.00"/>
            <lane id="3510021400_1i_3" queueing_time="45.00" queueing_length="21.00" queueing_length_experimental="21.00"/>
            <lane id="3510021400_3i_1" queueing_time="9.00" queueing_length="6.00" queueing_length_experimental="6.00"/>
            <lane id="3510021500_1i_4" queueing_time="59.00" queueing_length="6.00" queueing_length_experimental="6.00"/>
            <lane id="3510021500_2i_2" queueing_time="33.00" queueing_length="6.00" queueing_length_experimental="6.00"/>
            <lane id="3510021500_3i_0" queueing_time="0.00" queueing_length="0.00" queueing_length_experimental="5.45"/>
        </lanes>
    </data>
    <data timestep="500.00">
        <lanes>
            <lane id="3500006600_1i_1" queueing_time="9.00" queueing_length="6.00" queueing_length_experimental="6.00"/>
            <lane id="3500006600_2i_1" queueing_time="5.00" queueing_length="6.00" queueing_length_experimental="6.00"/>
            <lane id="3500006600_2i_4" queueing_time="4.00" queueing_length="6.00" queueing_length_experimental="6.00"/>
            <lane id="3500006650_0i_0" queueing_time="40.00" queueing_length="6.00" queueing_length_experimental="6.00"/>
            <lane id="3500006650_0i_1" queueing_time="34.00" queueing_length="6.00" queueing_length_experimental="6.00"/>
            <lane id="3500006650_0i_3" queueing_time="27.00" queueing_length="6.00" queueing_length_experimental="6.00"/>
            <lane id="3500006660_0i_0" queueing_time="25.00" queueing_length="6.00" queueing_length_experimental="6.00"/>
            <lane id="3500006660_0i_1" queueing_time="23.00" queueing_length="6.00" queueing_length_experimental="6.00"/>
            <lane id="3500006700_2i_1" queueing_time="20.00" queueing_length="6.00" queueing_length_experimental="6.00"/>
            <lane id="3500006901_0i_1" queueing_time="1.00" queueing_length="6.02" queueing_length_experimental="6.02"/>
            <lane id="3500007100_1i_0" queueing_time="39.00" queueing_length="13.50" queueing_length_experimental="13.50"/>
            <lane id="3500007100_1i_1" queueing_time="51.00" queueing_length="6.00" queueing_length_experimental="6.00"/>
            <lane id="3500007100_1i_3" queueing_time="38.00" queueing_length="13.50" queueing_length_experimental="13.50"/>
            <lane id="3500007100_2i_0" queueing_time="13.00" queueing_length="6.00" queueing_length_experimental="6.00"/>
            <lane id="3500007100_3i_0" queueing_time="10.00" queueing_length="6.00" queueing_length_experimental="6.00"/>
            <lane id="3500007100_3i_1" queueing_time="14.00" queueing_length="6.00" queueing_length_experimental="6.00"/>
            <lane id="3500007300_1i_0" queueing_time="25.00" queueing_length="6.00" queueing_length_experimental="6.00"/>
            <lane id="3500007500_1i_2" queueing_time="37.00" queueing_length="6.00" queueing_length_experimental="6.00"/>
            <lane id="3500007900_2i_0" queueing_time="40.00" queueing_length="28.53" queueing_length_experimental="28.53"/>
            <lane id="3500007900_2i_1" queueing_time="44.00" queueing_length="12.50" queueing_length_experimental="12.50"/>
            <lane id="3500007900_2i_2" queueing_time="13.00" queueing_length="6.00" queueing_length_experimental="6.00"/>
            <lane id="3500058500_2i_2" queueing_time="21.00" queueing_length="6.00" queueing_length_experimental="6.00"/>
            <lane id="3500058700_1i_0" queueing_time="45.00" queueing_length="21.00" queueing_length_experimental="21.00"/>
            <lane id="3500058700_1i_1" queueing_time="58.00" queueing_length="13.50" queueing_length_experimental="13.50"/>
            <lane id="3500058900_0i_0" queueing_time="1.00" queueing_length="5.10" queueing_length_experimental="5.10"/>
            <lane id="3500058900_2i_0" queueing_time="37.00" queueing_length="6.00" queueing_length_experimental="6.00"/>
            <lane id="3500058900_2i_1" queueing_time="11.00" queueing_length="6.00" queueing_length_experimental="6.00"/>
            <lane id="3500058900_3i_2" queueing_time="0.00" queueing_length="0.00" queueing_length_experimental="6.01"/>
            <lane id="3500059800_0i_0" queueing_time="4.00" queueing_length="6.00" queueing_length_experimental="6.00"/>
            <lane id="3500060600_1i_1" queueing_time="48.00" queueing_length="43.51" queueing_length_experimental="36.01"/>
            <lane id="3500060600_2i_1" queueing_time="6.00" queueing_length="6.00" queueing_length_experimental="6.00"/>
            <lane id="3500060600_3i_0" queueing_time="18.00" queueing_length="13.50" queueing_length_experimental="13.50"/>
            <lane id="3500060600_3i_1" queueing_time="14.00" queueing_length="6.00" queueing_length_experimental="6.00"/>
            <lane id="3500060800_1i_0" queueing_time="11.00" queueing_length="13.50" queueing_length_experimental="13.50"/>
            <lane id="3500060800_1i_1" queueing_time="14.00" queueing_length="6.00" queueing_length_experimental="6.00"/>
            <lane id="3500062100_1i_1" queueing_time="62.00" queueing_length="6.00" queueing_length_experimental="6.00"/>
            <lane id="3500062100_2i_0" queueing_time="18.00" queueing_length="6.00" queueing_length_experimental="6.00"/>
            <lane id="3500062100_3i_1" queueing_time="0.00" queueing_length="0.00" queueing_length_experimental="6.30"/>
            <lane id="3500062500_2i_1" queueing_time="40.00" queueing_length="6.00" queueing_length_experimental="6.00"/>
            <lane id="3500062500_3i_0" queueing_time="1.00" queueing_length="5.12" queueing_length_experimental="12.97"/>
            <lane id="3500062500_3i_3" queueing_time="10.00" queueing_length="13.50" queueing_length_experimental="13.50"/>
            <lane id="3500065800_1i_0" queueing_time="31.00" queueing_length="6.00" queueing_length_experimental="6.00"/>
            <lane id="3500065800_1i_1" queueing_time="64.00" queueing_length="6.00" queueing_length_experimental="6.00"/>
            <lane id="3500065800_1i_2" queueing_time="37.00" queueing_length="6.00" queueing_length_experimental="6.00"/>
            <lane id="3500065800_1i_3" queueing_time="63.00" queueing_length="13.50" queueing_length_experimental="13.50"/>
            <lane id="3500065800_1i_4" queueing_time="7.00" queueing_length="6.00" queueing_length_experimental="6.00"/>
            <lane id="3500065800_2i_0" queueing_time="0.00" queueing_length="0.00" queueing_length_experimental="5.35"/>
            <lane id="3500065800_2i_1" queueing_time="39.00" queueing_length="6.00" queueing_length_experimental="6.00"/>
            <lane id="3500065800_2i_2" queueing_time="21.00" queueing_length="6.00" queueing_length_experimental="6.00"/>
            <lane id="3500065800_3i_1" queueing_time="10.00" queueing_length="6.00" queueing_length_experimental="6.00"/>
            <lane id="3500065800_3i_2" queueing_time="16.00" queueing_length="6.00" queueing_length_experimental="6.00"/>
            <lane id="3500065800_3i_3" queueing_time="19.00" queueing_length="5.00" queueing_length_experimental="5.00"/>
            <lane id="3510000200_1i_0" queueing_time="23.00" queueing_length="6.00" queueing_length_experimental="6.00"/>
            <lane id="3510000200_1i_1" queueing_time="26.00" queueing_length="6.00" queueing_length_experimental="6.00"/>
            <lane id="3510000200_1i_2" queueing_time="16.00" queueing_length="6.00" queueing_length_experimental="6.00"/>
            <lane id="3510000200_1i_3" queueing_time="24.00" queueing_length="13.50" queueing_length_experimental="13.50"/>
            <lane id="3510000200_3i_2" queueing_time="1.00" queueing_length="6.00" queueing_length_experimental="6.00"/>
            <lane id="3510000250_1i_0" queueing_time="12.00" queueing_length="6.00" queueing_length_experimental="6.00"/>
            <lane id="3510000300_1i_2" queueing_time="37.00" queueing_length="28.50" queueing_length_experimental="28.50"/>
            <lane id="3510000300_3i_2" queueing_time="0.00" queueing_length="0.00" queueing_length_experimental="6.35"/>
            <lane id="3510000400_2i_2" queueing_time="1.00" queueing_length="6.05" queueing_length_experimental="6.05"/>
            <lane id="3510021200_1i_0" queueing_time="63.00" queueing_length="13.50" queueing_length_experimental="13.50"/>
            <lane id="3510021200_2i_0" queueing_time="7.00" queueing_length="6.00" queueing_length_experimental="6.00"/>
            <lane id="3510021200_2i_1" queueing_time="8.00" queueing_length="13.50" queueing_length_experimental="13.50"/>
            <lane id="3510021200_2i_2" queueing_time="6.00" queueing_length="6.00" queueing_length_experimental="6.00"/>
            <lane id="3510021400_1i_1" queueing_time="45.00" queueing_length="6.00" queueing_length_experimental="6.00"/>
            <lane id="3510021400_1i_2" queueing_time="38.00" queueing_length="13.50" queueing_length_experimental="13.50"/>
            <lane id="3510021400_1i_3" queueing_time="49.00" queueing_length="6.00" queueing_length_experimental="6.00"/>
            <lane id="3510021400_3i_1" queueing_time="12.00" queueing_length="6.00" queueing_length_experimental="6.00"/>
            <lane id="3510021400_3i_2" queueing_time="3.00" queueing_length="6.00" queueing_length_experimental="6.00"/>
            <lane id="3510021400_3i_3" queueing_time="14.00" queueing_length="6.00" queueing_length_experimental="6.00"/>
            <lane id="3510021500_1i_0" queueing_time="59.00" queueing_length="6.00" queueing_length_experimental="6.00"/>
            <lane id="3510021500_1i_1" queueing_time="63.00" queueing_length="6.00" queueing_length_experimental="6.00"/>
            <lane id="3510021500_1i_2" queueing_time="61.00" queueing_length="6.00" queueing_length_experimental="6.00"/>
            <lane id="3510021500_1i_4" queueing_time="68.00" queueing_length="36.01" queueing_length_experimental="36.01"/>
            <lane id="3510021500_2i_0" queueing_time="1.00" queueing_length="5.16" queueing_length_experimental="5.16"/>
            <lane id="3510021500_2i_2" queueing_time="43.00" queueing_length="6.00" queueing_length_experimental="6.00"/>
        </lanes>
    </data>
    <data timestep="600.00">
        <lanes>
            <lane id="3500006600_2i_1" queueing_time="29.00" queueing_length="13.50" queueing_length_experimental="13.50"/>
            <lane id="3500006600_2i_2" queueing_time="28.00" queueing_length="6.00" queueing_length_experimental="6.00"/>
            <lane id="3500006600_2i_3" queueing_time="12.00" queueing_length="6.00" queueing_length_experimental="6.00"/>
            <lane id="3500006700_2i_1" queueing_time="37.00" queueing_length="6.00" queueing_length_experimental="6.00"/>
            <lane id="3500007100_1i_0" queueing_time="59.00" queueing_length="28.50" queueing_length_experimental="28.50"/>
            <lane id="3500007100_1i_3" queueing_time="66.00" queueing_length="13.50" queueing_length_experimental="13.50"/>
            <lane id="3500007100_3i_0" queueing_time="19.00" queueing_length="6.00" queueing_length_experimental="6.00"/>
            <lane id="3500007300_2i_3" queueing_time="28.00" queueing_length="13.50" queueing_length_experimental="13.50"/>
            <lane id="3500007500_2i_1" queueing_time="34.00" queueing_length="6.00" queueing_length_experimental="6.00"/>
            <lane id="3500007500_2i_2" queueing_time="11.00" queueing_length="13.50" queueing_length_experimental="13.50"/>
            <lane id="3500007900_2i_0" queueing_time="36.00" queueing_length="6.00" queueing_length_experimental="6.00"/>
            <lane id="3500007900_2i_1" queueing_time="25.00" queueing_length="6.00" queueing_length_experimental="6.00"/>
            <lane id="3500051804_2i_2" queueing_time="3.00" queueing_length="6.01" queueing_length_experimental="13.96"/>
            <lane id="3500058500_0i_0" queueing_time="1.00" queueing_length="5.14" queueing_length_experimental="5.14"/>
            <lane id="3500058500_2i_2" queueing_time="24.00" queueing_length="6.00" queueing_length_experimental="6.00"/>
            <lane id="3500058900_1i_1" queueing_time="10.00" queueing_length="13.50" queueing_length_experimental="13.50"/>
            <lane id="3500058900_2i_0" queueing_time="40.00" queueing_length="6.00" queueing_length_experimental="6.00"/>
            <lane id="3500058900_2i_1" queueing_time="41.00" queueing_length="13.50" queueing_length_experimental="13.50"/>
            <lane id="3500059300_2i_1" queueing_time="7.00" queueing_length="6.00" queueing_length_experimental="6.00"/>
            <lane id="3500059800_2i_0" queueing_time="22.00" queueing_length="13.50" queueing_length_experimental="21.07"/>
            <lane id="3500059800_2i_1" queueing_time="4.00" queueing_length="6.00" queueing_length_experimental="6.00"/>
            <lane id="3500060100_1i_0" queueing_time="12.00" queueing_length="13.50" queueing_length_experimental="13.50"/>
            <lane id="3500060100_3i_0" queueing_time="4.00" queueing_length="6.00" queueing_length_experimental="6.00"/>
            <lane id="3500060600_1i_1" queueing_time="13.00" queueing_length="28.50" queueing_length_experimental="36.21"/>
            <lane id="3500060600_2i_0" queueing_time="32.00" queueing_length="6.00" queueing_length_experimental="6.00"/>
            <lane id="3500060600_2i_1" queueing_time="8.00" queueing_length="6.00" queueing_length_experimental="6.00"/>
            <lane id="3500060600_3i_0" queueing_time="5.00" queueing_length="6.00" queueing_length_experimental="6.00"/>
            <lane id="3500060800_0i_0" queueing_time="0.00" queueing_length="0.00" queueing_length_experimental="5.17"/>
            <lane id="3500060800_1i_0" queueing_time="41.00" queueing_length="21.00" queueing_length_experimental="21.00"/>
            <lane id="3500060800_1i_1" queueing_time="41.00" queueing_length="21.00" queueing_length_experimental="21.00"/>
            <lane id="3500060800_1i_2" queueing_time="40.00" queueing_length="28.50" queueing_length_experimental="21.00"/>
            <lane id="3500062100_1i_2" queueing_time="63.00" queueing_length="12.82" queueing_length_experimental="12.82"/>
            <lane id="3500062100_2i_0" queueing_time="41.00" queueing_length="21.00" queueing_length_experimental="21.00"/>
            <lane id="3500062100_3i_1" queueing_time="17.00" queueing_length="6.00" queueing_length_experimental="6.00"/>
            <lane id="3500062100_3i_2" queueing_time="2.00" queueing_length="6.01" queueing_length_experimental="6.01"/>
            <lane id="3500062500_2i_1" queueing_time="38.00" queueing_length="21.00" queueing_length_experimental="21.00"/>
            <lane id="3500062500_3i_4" queueing_time="2.00" queueing_length="13.53" queueing_length_experimental="13.53"/>
            <lane id="3500065800_3i_0" queueing_time="20.00" queueing_length="6.00" queueing_length_experimental="6.00"/>
            <lane id="3500065800_3i_2" queueing_time="9.00" queueing_length="6.00" queueing_length_experimental="6.00"/>
            <lane id="3500302300_0i_0" queueing_time="0.00" queueing_length="0.00" queueing_length_experimental="21.25"/>
            <lane id="3500302300_2i_1" queueing_time="9.00" queueing_length="6.00" queueing_length_experimental="6.00"/>
            <lane id="3510000200_1i_1" queueing_time="19.00" queueing_length="13.50" queueing_length_experimental="13.50"/>
            <lane id="3510000200_1i_2" queueing_time="52.00" queueing_length="13.50" queueing_length_experimental="13.50"/>
            <lane id="3510000200_2i_1" queueing_time="43.00" queueing_length="6.00" queueing_length_experimental="6.00"/>
            <lane id="3510000200_3i_0" queueing_time="23.00" queueing_length="36.01" queueing_length_experimental="36.01"/>
            <lane id="3510000200_3i_1" queueing_time="0.00" queueing_length="0.00" queueing_length_experimental="6.03"/>
            <lane id="3510000300_1i_2" queueing_time="64.00" queueing_length="28.50" queueing_length_experimental="28.50"/>
            <lane id="3510000300_3i_0" queueing_time="19.00" queueing_length="28.50" queueing_length_experimental="28.50"/>
            <lane id="3510000300_3i_1" queueing_time="18.00" queueing_length="6.00" queueing_length_experimental="6.00"/>
            <lane id="3510000400_2i_2" queueing_time="36.00" queueing_length="13.50" queueing_length_experimental="13.50"/>
            <lane id="3510000400_2i_3" queueing_time="29.00" queueing_length="6.00" queueing_length_experimental="6.00"/>
            <lane id="3510000400_2o_0" queueing_time="0.00" queueing_length="0.00" queueing_length_experimental="19.90"/>
            <lane id="3510021200_0i_0" queueing_time="0.00" queueing_length="0.00" queueing_length_experimental="5.11"/>
            <lane id="3510021200_1i_1" queueing_time="62.00" queueing_length="13.50" queueing_length_experimental="13.50"/>
            <lane id="3510021200_2i_0" queueing_time="37.00" queueing_length="6.00" queueing_length_experimental="6.00"/>
            <lane id="3510021300_2i_0" queueing_time="5.00" queueing_length="6.00" queueing_length_experimental="6.00"/>
            <lane id="3510021300_2i_1" queueing_time="13.00" queueing_length="6.00" queueing_length_experimental="6.00"/>
            <lane id="3510021400_3i_1" queueing_time="19.00" queueing_length="6.00" queueing_length_experimental="6.00"/>
            <lane id="3510021400_3i_2" queueing_time="3.00" queueing_length="6.00" queueing_length_experimental="6.00"/>
            <lane id="3510021400_3i_3" queueing_time="10.00" queueing_length="6.00" queueing_length_experimental="6.00"/>
            <lane id="3510021500_1i_2" queueing_time="63.00" queueing_length="11.39" queueing_length_experimental="11.39"/>
            <lane id="3510021500_1i_4" queueing_time="66.00" queueing_length="28.50" queueing_length_experimental="28.50"/>
            <lane id="3510021500_2i_2" queueing_time="35.00" queueing_length="13.50" queueing_length_experimental="13.50"/>
            <lane id="3510021500_3i_1" queueing_time="1.00" queueing_length="6.01" queueing_length_experimental="6.01"/>
        </lanes>
    </data>
    <data timestep="700.00">
        <lanes>
            <lane id="3500006600_3i_3" queueing_time="18.00" queueing_length="13.50" queueing_length_experimental="13.50"/>
            <lane id="3500006650_0i_0" queueing_time="20.00" queueing_length="6.00" queueing_length_experimental="6.00"/>
            <lane id="3500006650_0i_1" queueing_time="8.00" queueing_length="13.50" queueing_length_experimental="13.50"/>