<?xml version="1.0" encoding="UTF-8"?>

<!-- generated on 2023-07-11 15:43:25 by Eclipse SUMO sumo Version 1.15.0
<configuration xmlns:xsi="http://www.w3.org/2001/XMLSchema-instance" xsi:noNamespaceSchemaLocation="http://sumo.dlr.de/xsd/sumoConfiguration.xsd">

    <input>
        <net-file value="C:/Users/FILAB/Desktop/arrange/5_code/SUMO/sumo_DT/test_folder/test25.net.xml"/>
        <route-files value="C:/Users/FILAB/Desktop/arrange/5_code/SUMO/sumo_DT/test_folder/test25.rou.xml"/>
        <additional-files value="C:/Users/FILAB/Desktop/arrange/5_code/SUMO/sumo_DT/test_folder/test25.add.xml"/>
    </input>

    <output>
        <queue-output value="C:/Users/FILAB/Desktop/arrange/5_code/SUMO/sumo_DT/test_folder/test25_queue.xml"/>
        <queue-output.period value="100"/>
        <summary-output value="C:/Users/FILAB/Desktop/arrange/5_code/SUMO/sumo_DT/test_folder/test25_summary.xml"/>
        <summary-output.period value="100"/>
    </output>

    <time>
        <begin value="0"/>
        <end value="3600"/>
    </time>

</configuration>
-->

<queue-export xmlns:xsi="http://www.w3.org/2001/XMLSchema-instance" xsi:noNamespaceSchemaLocation="http://sumo.dlr.de/xsd/queue_file.xsd">
    <data timestep="0.00">
        <lanes/>
    </data>
    <data timestep="100.00">
        <lanes>
            <lane id="test_00_1i_1" queueing_time="10.00" queueing_length="6.00" queueing_length_experimental="6.00"/>
            <lane id="test_00_3i_0" queueing_time="34.00" queueing_length="21.00" queueing_length_experimental="21.00"/>
            <lane id="test_00_3i_1" queueing_time="52.00" queueing_length="21.00" queueing_length_experimental="21.00"/>
            <lane id="test_01_0i_0" queueing_time="49.00" queueing_length="6.00" queueing_length_experimental="6.00"/>
            <lane id="test_01_0i_1" queueing_time="30.00" queueing_length="13.50" queueing_length_experimental="13.50"/>
            <lane id="test_01_3i_0" queueing_time="44.00" queueing_length="6.00" queueing_length_experimental="6.00"/>
            <lane id="test_01_3i_1" queueing_time="54.00" queueing_length="6.00" queueing_length_experimental="6.00"/>
            <lane id="test_02_0i_1" queueing_time="37.00" queueing_length="13.50" queueing_length_experimental="13.50"/>
            <lane id="test_02_3i_0" queueing_time="88.00" queueing_length="43.51" queueing_length_experimental="36.01"/>
            <lane id="test_02_3i_1" queueing_time="85.00" queueing_length="28.50" queueing_length_experimental="28.50"/>
            <lane id="test_03_0i_1" queueing_time="0.00" queueing_length="0.00" queueing_length_experimental="6.22"/>
            <lane id="test_03_3i_0" queueing_time="78.00" queueing_length="28.50" queueing_length_experimental="28.50"/>
            <lane id="test_03_3i_1" queueing_time="71.00" queueing_length="28.51" queueing_length_experimental="28.51"/>
            <lane id="test_04_0i_0" queueing_time="29.00" queueing_length="13.50" queueing_length_experimental="13.50"/>
            <lane id="test_04_0i_1" queueing_time="14.00" queueing_length="6.00" queueing_length_experimental="6.00"/>
            <lane id="test_04_3i_0" queueing_time="53.00" queueing_length="13.50" queueing_length_experimental="13.50"/>
            <lane id="test_10_3i_0" queueing_time="46.00" queueing_length="6.00" queueing_length_experimental="6.00"/>
            <lane id="test_10_3i_1" queueing_time="24.00" queueing_length="6.00" queueing_length_experimental="6.00"/>
            <lane id="test_11_0i_1" queueing_time="9.00" queueing_length="6.00" queueing_length_experimental="6.00"/>
            <lane id="test_11_1i_1" queueing_time="3.00" queueing_length="6.02" queueing_length_experimental="13.65"/>
            <lane id="test_11_3i_1" queueing_time="88.00" queueing_length="13.50" queueing_length_experimental="13.50"/>
            <lane id="test_13_0i_0" queueing_time="37.00" queueing_length="13.50" queueing_length_experimental="13.50"/>
            <lane id="test_13_0i_1" queueing_time="31.00" queueing_length="6.00" queueing_length_experimental="6.00"/>
            <lane id="test_13_3i_0" queueing_time="34.00" queueing_length="13.50" queueing_length_experimental="13.50"/>
            <lane id="test_13_3i_1" queueing_time="38.00" queueing_length="6.00" queueing_length_experimental="6.00"/>
            <lane id="test_20_1i_1" queueing_time="3.00" queueing_length="5.55" queueing_length_experimental="5.55"/>
            <lane id="test_20_2i_0" queueing_time="0.00" queueing_length="0.00" queueing_length_experimental="5.38"/>
            <lane id="test_20_3i_0" queueing_time="52.00" queueing_length="6.00" queueing_length_experimental="6.00"/>
            <lane id="test_21_3i_1" queueing_time="23.00" queueing_length="6.00" queueing_length_experimental="6.00"/>
            <lane id="test_23_0i_0" queueing_time="25.00" queueing_length="13.50" queueing_length_experimental="13.50"/>
            <lane id="test_23_2i_0" queueing_time="75.00" queueing_length="6.00" queueing_length_experimental="6.00"/>
            <lane id="test_24_3i_1" queueing_time="49.00" queueing_length="6.00" queueing_length_experimental="6.00"/>
            <lane id="test_30_0i_0" queueing_time="30.00" queueing_length="6.00" queueing_length_experimental="6.00"/>
            <lane id="test_30_0i_1" queueing_time="33.00" queueing_length="6.00" queueing_length_experimental="6.00"/>
            <lane id="test_30_2i_0" queueing_time="24.00" queueing_length="13.50" queueing_length_experimental="13.50"/>
            <lane id="test_30_2i_1" queueing_time="21.00" queueing_length="21.01" queueing_length_experimental="21.01"/>
            <lane id="test_30_3i_1" queueing_time="32.00" queueing_length="13.50" queueing_length_experimental="13.50"/>
            <lane id="test_31_0i_0" queueing_time="0.00" queueing_length="0.00" queueing_length_experimental="6.17"/>
            <lane id="test_31_0i_1" queueing_time="17.00" queueing_length="6.00" queueing_length_experimental="6.00"/>
            <lane id="test_31_2i_0" queueing_time="1.00" queueing_length="6.00" queueing_length_experimental="6.00"/>
            <lane id="test_32_2i_1" queueing_time="83.00" queueing_length="6.00" queueing_length_experimental="6.00"/>
            <lane id="test_33_0i_0" queueing_time="24.00" queueing_length="6.00" queueing_length_experimental="6.00"/>
            <lane id="test_33_0i_1" queueing_time="11.00" queueing_length="13.50" queueing_length_experimental="13.50"/>
            <lane id="test_33_3i_0" queueing_time="42.00" queueing_length="6.00" queueing_length_experimental="6.00"/>
            <lane id="test_34_0i_1" queueing_time="24.00" queueing_length="6.00" queueing_length_experimental="6.00"/>
            <lane id="test_34_2i_1" queueing_time="65.00" queueing_length="13.50" queueing_length_experimental="13.50"/>
            <lane id="test_34_3i_1" queueing_time="61.00" queueing_length="6.00" queueing_length_experimental="6.00"/>
            <lane id="test_40_0i_1" queueing_time="19.00" queueing_length="6.00" queueing_length_experimental="6.00"/>
            <lane id="test_40_2i_0" queueing_time="13.00" queueing_length="6.00" queueing_length_experimental="6.00"/>
            <lane id="test_40_2i_1" queueing_time="62.00" queueing_length="21.00" queueing_length_experimental="21.00"/>
            <lane id="test_41_0i_0" queueing_time="0.00" queueing_length="0.00" queueing_length_experimental="6.18"/>
            <lane id="test_41_0i_1" queueing_time="12.00" queueing_length="6.00" queueing_length_experimental="6.00"/>
            <lane id="test_42_0i_0" queueing_time="28.00" queueing_length="13.50" queueing_length_experimental="21.30"/>
            <lane id="test_42_0i_1" queueing_time="9.00" queueing_length="13.50" queueing_length_experimental="13.50"/>
            <lane id="test_43_0i_0" queueing_time="3.00" queueing_length="6.00" queueing_length_experimental="6.00"/>
            <lane id="test_43_0i_1" queueing_time="6.00" queueing_length="13.51" queueing_length_experimental="13.51"/>
            <lane id="test_43_2i_1" queueing_time="63.00" queueing_length="21.00" queueing_length_experimental="21.00"/>
            <lane id="test_44_0i_0" queueing_time="3.00" queueing_length="6.00" queueing_length_experimental="6.00"/>
            <lane id="test_44_2i_0" queueing_time="4.00" queueing_length="6.00" queueing_length_experimental="6.00"/>
            <lane id="test_44_2i_1" queueing_time="65.00" queueing_length="13.50" queueing_length_experimental="13.50"/>
            <lane id="test_44_3i_0" queueing_time="28.00" queueing_length="6.00" queueing_length_experimental="6.00"/>
        </lanes>
    </data>
    <data timestep="200.00">
        <lanes>
            <lane id="test_00_1i_0" queueing_time="23.00" queueing_length="6.00" queueing_length_experimental="6.00"/>
            <lane id="test_00_1i_1" queueing_time="110.00" queueing_length="6.00" queueing_length_experimental="6.00"/>
            <lane id="test_00_2i_0" queueing_time="56.00" queueing_length="28.50" queueing_length_experimental="28.50"/>
            <lane id="test_00_2i_1" queueing_time="49.00" queueing_length="28.50" queueing_length_experimental="28.50"/>
            <lane id="test_00_3i_0" queueing_time="0.00" queueing_length="0.00" queueing_length_experimental="6.13"/>
            <lane id="test_01_0i_0" queueing_time="0.00" queueing_length="0.00" queueing_length_experimental="18.84"/>
            <lane id="test_01_2i_0" queueing_time="38.00" queueing_length="13.50" queueing_length_experimental="13.50"/>
            <lane id="test_01_2i_1" queueing_time="48.00" queueing_length="21.00" queueing_length_experimental="21.00"/>
            <lane id="test_01_3i_0" queueing_time="19.00" queueing_length="6.00" queueing_length_experimental="6.00"/>
            <lane id="test_01_3i_1" queueing_time="16.00" queueing_length="13.50" queueing_length_experimental="13.50"/>
            <lane id="test_02_1i_0" queueing_time="66.00" queueing_length="13.50" queueing_length_experimental="13.50"/>
            <lane id="test_02_1i_1" queueing_time="82.00" queueing_length="6.00" queueing_length_experimental="6.00"/>
            <lane id="test_02_2i_0" queueing_time="49.00" queueing_length="36.01" queueing_length_experimental="36.01"/>
            <lane id="test_02_2i_1" queueing_time="45.00" queueing_length="36.01" queueing_length_experimental="36.01"/>
            <lane id="test_03_1i_0" queueing_time="97.00" queueing_length="6.00" queueing_length_experimental="6.00"/>
            <lane id="test_03_1i_1" queueing_time="88.00" queueing_length="13.50" queueing_length_experimental="13.50"/>
            <lane id="test_03_2i_0" queueing_time="55.00" queueing_length="6.00" queueing_length_experimental="6.00"/>
            <lane id="test_03_2i_1" queueing_time="41.00" queueing_length="13.50" queueing_length_experimental="13.50"/>
            <lane id="test_03_3i_0" queueing_time="5.00" queueing_length="6.00" queueing_length_experimental="6.00"/>
            <lane id="test_04_1i_0" queueing_time="95.00" queueing_length="13.50" queueing_length_experimental="13.50"/>
            <lane id="test_04_1i_1" queueing_time="41.00" queueing_length="13.50" queueing_length_experimental="13.50"/>
            <lane id="test_04_2i_0" queueing_time="29.00" queueing_length="6.00" queueing_length_experimental="6.00"/>
            <lane id="test_04_2i_1" queueing_time="36.00" queueing_length="6.00" queueing_length_experimental="6.00"/>
            <lane id="test_04_3i_1" queueing_time="7.00" queueing_length="6.00" queueing_length_experimental="6.00"/>
            <lane id="test_10_1i_0" queueing_time="52.00" queueing_length="6.00" queueing_length_experimental="6.00"/>
            <lane id="test_10_2i_0" queueing_time="65.00" queueing_length="21.00" queueing_length_experimental="21.00"/>
            <lane id="test_10_3i_0" queueing_time="6.00" queueing_length="6.00" queueing_length_experimental="6.00"/>
            <lane id="test_10_3i_1" queueing_time="15.00" queueing_length="6.00" queueing_length_experimental="6.00"/>
            <lane id="test_11_1i_0" queueing_time="94.00" queueing_length="28.50" queueing_length_experimental="28.50"/>
            <lane id="test_11_1i_1" queueing_time="103.00" queueing_length="21.00" queueing_length_experimental="21.00"/>
            <lane id="test_11_2i_0" queueing_time="43.00" queueing_length="21.00" queueing_length_experimental="21.00"/>
            <lane id="test_11_2i_1" queueing_time="56.00" queueing_length="21.00" queueing_length_experimental="21.00"/>
            <lane id="test_12_1i_0" queueing_time="47.00" queueing_length="13.50" queueing_length_experimental="13.50"/>
            <lane id="test_12_1i_1" queueing_time="92.00" queueing_length="13.50" queueing_length_experimental="13.50"/>
            <lane id="test_12_2i_0" queueing_time="52.00" queueing_length="13.50" queueing_length_experimental="13.50"/>
            <lane id="test_12_2i_1" queueing_time="42.00" queueing_length="13.50" queueing_length_experimental="13.50"/>
            <lane id="test_12_3i_0" queueing_time="12.00" queueing_length="13.50" queueing_length_experimental="13.50"/>
            <lane id="test_13_2i_0" queueing_time="14.00" queueing_length="6.00" queueing_length_experimental="6.00"/>
            <lane id="test_14_0i_0" queueing_time="2.00" queueing_length="43.51" queueing_length_experimental="35.49"/>
            <lane id="test_14_0i_1" queueing_time="0.00" queueing_length="0.00" queueing_length_experimental="35.42"/>
            <lane id="test_14_1i_0" queueing_time="89.00" queueing_length="13.50" queueing_length_experimental="13.50"/>
            <lane id="test_14_1i_1" queueing_time="83.00" queueing_length="13.50" queueing_length_experimental="13.50"/>
            <lane id="test_14_2i_1" queueing_time="32.00" queueing_length="6.00" queueing_length_experimental="6.00"/>
            <lane id="test_20_1i_0" queueing_time="103.00" queueing_length="13.05" queueing_length_experimental="13.05"/>
            <lane id="test_20_1i_1" queueing_time="82.00" queueing_length="13.50" queueing_length_experimental="13.50"/>
            <lane id="test_20_2i_0" queueing_time="50.00" queueing_length="13.50" queueing_length_experimental="13.50"/>
            <lane id="test_20_2i_1" queueing_time="26.00" queueing_length="28.50" queueing_length_experimental="28.50"/>
            <lane id="test_21_1i_0" queueing_time="75.00" queueing_length="6.00" queueing_length_experimental="6.00"/>
            <lane id="test_21_2i_0" queueing_time="35.00" queueing_length="13.50" queueing_length_experimental="13.50"/>
            <lane id="test_21_2i_1" queueing_time="38.00" queueing_length="13.50" queueing_length_experimental="13.50"/>
            <lane id="test_22_1i_0" queueing_time="75.00" queueing_length="6.00" queueing_length_experimental="6.00"/>
            <lane id="test_22_2i_0" queueing_time="37.00" queueing_length="6.00" queueing_length_experimental="6.00"/>
            <lane id="test_23_0i_0" queueing_time="0.00" queueing_length="0.00" queueing_length_experimental="5.22"/>
            <lane id="test_23_1i_0" queueing_time="52.00" queueing_length="13.50" queueing_length_experimental="13.50"/>
            <lane id="test_23_1i_1" queueing_time="33.00" queueing_length="6.00" queueing_length_experimental="6.00"/>
            <lane id="test_23_2i_1" queueing_time="18.00" queueing_length="6.00" queueing_length_experimental="6.00"/>
            <lane id="test_23_3i_0" queueing_time="3.00" queueing_length="12.63" queueing_length_experimental="12.63"/>
            <lane id="test_24_0i_0" queueing_time="40.00" queueing_length="21.00" queueing_length_experimental="21.00"/>
            <lane id="test_24_0i_1" queueing_time="7.00" queueing_length="13.50" queueing_length_experimental="13.50"/>
            <lane id="test_24_1i_0" queueing_time="77.00" queueing_length="13.50" queueing_length_experimental="13.50"/>
            <lane id="test_24_1i_1" queueing_time="66.00" queueing_length="21.00" queueing_length_experimental="21.00"/>
            <lane id="test_24_2i_0" queueing_time="16.00" queueing_length="6.00" queueing_length_experimental="6.00"/>
            <lane id="test_24_2i_1" queueing_time="36.00" queueing_length="13.50" queueing_length_experimental="13.50"/>
            <lane id="test_30_1i_0" queueing_time="76.00" queueing_length="21.00" queueing_length_experimental="21.00"/>
            <lane id="test_30_1i_1" queueing_time="90.00" queueing_length="36.01" queueing_length_experimental="36.01"/>
            <lane id="test_30_2i_0" queueing_time="49.00" queueing_length="13.50" queueing_length_experimental="13.50"/>
            <lane id="test_31_1i_0" queueing_time="90.00" queueing_length="21.00" queueing_length_experimental="21.00"/>
            <lane id="test_31_1i_1" queueing_time="92.00" queueing_length="21.00" queueing_length_experimental="21.00"/>
            <lane id="test_31_2i_1" queueing_time="39.00" queueing_length="13.50" queueing_length_experimental="13.50"/>
            <lane id="test_33_0i_0" queueing_time="93.00" queueing_length="28.50" queueing_length_experimental="28.50"/>
            <lane id="test_33_0i_1" queueing_time="109.00" queueing_length="28.50" queueing_length_experimental="28.50"/>
            <lane id="test_33_1i_0" queueing_time="83.00" queueing_length="13.50" queueing_length_experimental="13.50"/>
            <lane id="test_33_1i_1" queueing_time="82.00" queueing_length="13.50" queueing_length_experimental="13.50"/>
            <lane id="test_33_2i_1" queueing_time="9.00" queueing_length="13.50" queueing_length_experimental="13.50"/>
            <lane id="test_33_3i_0" queueing_time="0.00" queueing_length="0.00" queueing_length_experimental="5.20"/>
            <lane id="test_34_0i_0" queueing_time="88.00" queueing_length="43.51" queueing_length_experimental="36.01"/>
            <lane id="test_34_0i_1" queueing_time="124.00" queueing_length="36.01" queueing_length_experimental="36.01"/>
            <lane id="test_34_1i_0" queueing_time="63.00" queueing_length="6.00" queueing_length_experimental="6.00"/>
            <lane id="test_34_1i_1" queueing_time="54.00" queueing_length="13.50" queueing_length_experimental="13.50"/>
            <lane id="test_34_2i_1" queueing_time="36.00" queueing_length="6.00" queueing_length_experimental="6.00"/>
            <lane id="test_40_1i_0" queueing_time="94.00" queueing_length="36.01" queueing_length_experimental="36.01"/>
            <lane id="test_40_1i_1" queueing_time="80.00" queueing_length="13.50" queueing_length_experimental="13.50"/>
            <lane id="test_40_2i_0" queueing_time="51.00" queueing_length="21.00" queueing_length_experimental="21.00"/>
            <lane id="test_40_2i_1" queueing_time="25.00" queueing_length="13.50" queueing_length_experimental="13.50"/>
            <lane id="test_41_1i_0" queueing_time="88.00" queueing_length="28.50" queueing_length_experimental="28.50"/>
            <lane id="test_41_1i_1" queueing_time="88.00" queueing_length="21.00" queueing_length_experimental="21.00"/>
            <lane id="test_41_2i_0" queueing_time="20.00" queueing_length="13.50" queueing_length_experimental="13.50"/>
            <lane id="test_41_2i_1" queueing_time="40.00" queueing_length="13.50" queueing_length_experimental="13.50"/>
            <lane id="test_42_0i_0" queueing_time="101.00" queueing_length="21.00" queueing_length_experimental="21.00"/>
            <lane id="test_42_0i_1" queueing_time="106.00" queueing_length="21.00" queueing_length_experimental="21.00"/>
            <lane id="test_42_1i_0" queueing_time="53.00" queueing_length="28.50" queueing_length_experimental="28.50"/>
            <lane id="test_42_1i_1" queueing_time="86.00" queueing_length="21.00" queueing_length_experimental="21.00"/>
            <lane id="test_42_2i_0" queueing_time="31.00" queueing_length="6.00" queueing_length_experimental="6.00"/>
            <lane id="test_42_2i_1" queueing_time="10.00" queueing_length="6.00" queueing_length_experimental="6.00"/>
            <lane id="test_43_0i_0" queueing_time="103.00" queueing_length="36.01" queueing_length_experimental="36.01"/>
            <lane id="test_43_0i_1" queueing_time="106.00" queueing_length="21.00" queueing_length_experimental="21.00"/>
            <lane id="test_43_1i_0" queueing_time="45.00" queueing_length="6.00" queueing_length_experimental="6.00"/>
            <lane id="test_43_1i_1" queueing_time="80.00" queueing_length="13.50" queueing_length_experimental="13.50"/>
            <lane id="test_43_2i_1" queueing_time="7.00" queueing_length="6.00" queueing_length_experimental="6.00"/>
            <lane id="test_44_0i_0" queueing_time="103.00" queueing_length="36.01" queueing_length_experimental="36.01"/>
            <lane id="test_44_0i_1" queueing_time="60.00" queueing_length="21.00" queueing_length_experimental="21.00"/>
            <lane id="test_44_1i_0" queueing_time="53.00" queueing_length="21.00" queueing_length_experimental="21.00"/>
            <lane id="test_44_1i_1" queueing_time="32.00" queueing_length="21.01" queueing_length_experimental="28.71"/>
            <lane id="test_44_2i_1" queueing_time="4.00" queueing_length="6.00" queueing_length_experimental="6.00"/>
        </lanes>
    </data>
    <data timestep="300.00">
        <lanes>
            <lane id="test_00_1i_0" queueing_time="10.00" queueing_length="6.00" queueing_length_experimental="6.00"/>
            <lane id="test_00_1i_1" queueing_time="34.00" queueing_length="6.00" queueing_length_experimental="6.00"/>
            <lane id="test_00_2i_0" queueing_time="0.00" queueing_length="0.00" queueing_length_experimental="13.10"/>
            <lane id="test_00_3i_0" queueing_time="99.00" queueing_length="36.68" queueing_length_experimental="36.68"/>
            <lane id="test_00_3i_1" queueing_time="73.00" queueing_length="43.51" queueing_length_experimental="36.01"/>
            <lane id="test_01_0i_0" queueing_time="20.00" queueing_length="6.00" queueing_length_experimental="6.00"/>
            <lane id="test_01_0i_1" queueing_time="69.00" queueing_length="6.00" queueing_length_experimental="6.00"/>
            <lane id="test_01_1i_0" queueing_time="7.00" queueing_length="13.50" queueing_length_experimental="13.50"/>
            <lane id="test_01_1i_1" queueing_time="29.00" queueing_length="28.50" queueing_length_experimental="28.50"/>
            <lane id="test_01_3i_0" queueing_time="119.00" queueing_length="43.51" queueing_length_experimental="36.01"/>
            <lane id="test_01_3i_1" queueing_time="116.00" queueing_length="51.01" queueing_length_experimental="36.01"/>
            <lane id="test_02_0i_0" queueing_time="49.00" queueing_length="6.00" queueing_length_experimental="6.00"/>
            <lane id="test_02_0i_1" queueing_time="73.00" queueing_length="28.50" queueing_length_experimental="28.50"/>
            <lane id="test_02_1i_0" queueing_time="26.00" queueing_length="13.50" queueing_length_experimental="13.50"/>
            <lane id="test_02_1i_1" queueing_time="28.00" queueing_length="6.00" queueing_length_experimental="6.00"/>
            <lane id="test_02_3i_0" queueing_time="72.00" queueing_length="21.00" queueing_length_experimental="28.60"/>
            <lane id="test_02_3i_1" queueing_time="54.00" queueing_length="13.50" queueing_length_experimental="13.50"/>
            <lane id="test_03_0i_0" queueing_time="25.00" queueing_length="6.00" queueing_length_experimental="6.00"/>
            <lane id="test_03_0i_1" queueing_time="63.00" queueing_length="13.50" queueing_length_experimental="13.50"/>
            <lane id="test_03_1i_0" queueing_time="14.00" queueing_length="21.00" queueing_length_experimental="21.00"/>
            <lane id="test_03_1i_1" queueing_time="21.00" queueing_length="13.50" queueing_length_experimental="13.50"/>
            <lane id="test_03_3i_0" queueing_time="105.00" queueing_length="28.50" queueing_length_experimental="28.50"/>
            <lane id="test_03_3i_1" queueing_time="96.00" queueing_length="36.02" queueing_length_experimental="36.02"/>
            <lane id="test_04_0i_0" queueing_time="47.00" queueing_length="6.00" queueing_length_experimental="6.00"/>
            <lane id="test_04_0i_1" queueing_time="58.00" queueing_length="21.00" queueing_length_experimental="21.00"/>
            <lane id="test_04_1i_0" queueing_time="9.00" queueing_length="12.60" queueing_length_experimental="12.60"/>
            <lane id="test_04_1i_1" queueing_time="20.00" queueing_length="13.50" queueing_length_experimental="13.50"/>
            <lane id="test_04_3i_0" queueing_time="81.00" queueing_length="43.51" queueing_length_experimental="36.01"/>
            <lane id="test_04_3i_1" queueing_time="107.00" queueing_length="43.51" queueing_length_experimental="36.01"/>
            <lane id="test_10_0i_1" queueing_time="72.00" queueing_length="13.50" queueing_length_experimental="13.50"/>
            <lane id="test_10_1i_0" queueing_time="22.00" queueing_length="6.00" queueing_length_experimental="13.65"/>
            <lane id="test_10_1i_1" queueing_time="31.00" queueing_length="43.53" queueing_length_experimental="36.01"/>
            <lane id="test_10_2i_0" queueing_time="0.00" queueing_length="0.00" queueing_length_experimental="5.50"/>
            <lane id="test_10_3i_0" queueing_time="106.00" queueing_length="21.00" queueing_length_experimental="28.70"/>
            <lane id="test_10_3i_1" queueing_time="115.00" queueing_length="28.50" queueing_length_experimental="28.50"/>
            <lane id="test_11_0i_0" queueing_time="28.00" queueing_length="13.50" queueing_length_experimental="13.50"/>
            <lane id="test_11_0i_1" queueing_time="64.00" queueing_length="6.00" queueing_length_experimental="6.00"/>
            <lane id="test_11_1i_0" queueing_time="10.00" queueing_length="6.00" queueing_length_experimental="6.00"/>
            <lane id="test_11_1i_1" queueing_time="20.00" queueing_length="13.50" queueing_length_experimental="13.50"/>
            <lane id="test_11_3i_0" queueing_time="83.00" queueing_length="6.00" queueing_length_experimental="6.00"/>
            <lane id="test_11_3i_1" queueing_time="79.00" queueing_length="6.00" queueing_length_experimental="6.00"/>
            <lane id="test_12_0i_0" queueing_time="62.00" queueing_length="13.50" queueing_length_experimental="13.50"/>
            <lane id="test_12_0i_1" queueing_time="68.00" queueing_length="13.50" queueing_length_experimental="13.50"/>
            <lane id="test_12_1i_0" queueing_time="20.00" queueing_length="6.00" queueing_length_experimental="13.55"/>
            <lane id="test_12_1i_1" queueing_time="3.00" queueing_length="6.00" queueing_length_experimental="6.00"/>
            <lane id="test_12_3i_0" queueing_time="112.00" queueing_length="28.50" queueing_length_experimental="28.50"/>
            <lane id="test_12_3i_1" queueing_time="95.00" queueing_length="21.00" queueing_length_experimental="21.00"/>
            <lane id="test_13_0i_0" queueing_time="27.00" queueing_length="6.00" queueing_length_experimental="6.00"/>
            <lane id="test_13_0i_1" queueing_time="21.00" queueing_length="6.00" queueing_length_experimental="6.00"/>
            <lane id="test_13_1i_1" queueing_time="9.00" queueing_length="6.00" queueing_length_experimental="6.00"/>
            <lane id="test_13_3i_0" queueing_time="96.00" queueing_length="13.50" queueing_length_experimental="21.01"/>
            <lane id="test_13_3i_1" queueing_time="74.00" queueing_length="13.50" queueing_length_experimental="13.50"/>
            <lane id="test_14_0i_0" queueing_time="23.00" queueing_length="28.52" queueing_length_experimental="28.52"/>
            <lane id="test_14_0i_1" queueing_time="60.00" queueing_length="21.00" queueing_length_experimental="21.00"/>
            <lane id="test_14_1i_1" queueing_time="10.00" queueing_length="6.00" queueing_length_experimental="6.00"/>
            <lane id="test_14_3i_0" queueing_time="87.00" queueing_length="6.00" queueing_length_experimental="6.00"/>
            <lane id="test_14_3i_1" queueing_time="83.00" queueing_length="13.50" queueing_length_experimental="13.50"/>
            <lane id="test_20_0i_1" queueing_time="68.00" queueing_length="13.50" queueing_length_experimental="13.50"/>
            <lane id="test_20_1i_0" queueing_time="18.00" queueing_length="6.00" queueing_length_experimental="6.00"/>
            <lane id="test_20_1i_1" queueing_time="22.00" queueing_length="6.00" queueing_length_experimental="6.00"/>
            <lane id="test_20_3i_0" queueing_time="84.00" queueing_length="21.00" queueing_length_experimental="21.00"/>
            <lane id="test_20_3i_1" queueing_time="78.00" queueing_length="13.50" queueing_length_experimental="13.50"/>
            <lane id="test_21_0i_0" queueing_time="59.00" queueing_length="28.50" queueing_length_experimental="28.50"/>
            <lane id="test_21_0i_1" queueing_time="63.00" queueing_length="28.50" queueing_length_experimental="28.50"/>
            <lane id="test_21_1i_0" queueing_time="12.00" queueing_length="6.00" queueing_length_experimental="6.00"/>
            <lane id="test_21_2i_0" queueing_time="0.00" queueing_length="0.00" queueing_length_experimental="5.11"/>
            <lane id="test_22_0i_0" queueing_time="10.00" queueing_length="13.50" queueing_length_experimental="13.50"/>
            <lane id="test_22_0i_1" queueing_time="61.00" queueing_length="21.00" queueing_length_experimental="21.00"/>
            <lane id="test_22_1i_0" queueing_time="7.00" queueing_length="12.60" queueing_length_experimental="12.60"/>
            <lane id="test_22_3i_0" queueing_time="75.00" queueing_length="6.00" queueing_length_experimental="6.00"/>
            <lane id="test_22_3i_1" queueing_time="56.00" queueing_length="13.50" queueing_length_experimental="13.50"/>
            <lane id="test_23_0i_0" queueing_time="32.00" queueing_length="6.00" queueing_length_experimental="6.00"/>