<?xml version="1.0" encoding="UTF-8"?>

<!-- generated on 2023-07-03 13:38:22 by Eclipse SUMO sumo Version 1.15.0
<configuration xmlns:xsi="http://www.w3.org/2001/XMLSchema-instance" xsi:noNamespaceSchemaLocation="http://sumo.dlr.de/xsd/sumoConfiguration.xsd">

    <input>
        <net-file value="test2.net.xml"/>
        <route-files value="pangyo.rou.xml"/>
        <additional-files value="test2.add.xml"/>
    </input>

    <output>
        <queue-output value="test_queue.xml"/>
        <queue-output.period value="10"/>
        <summary-output value="test_summary.xml"/>
    </output>

    <time>
        <begin value="0"/>
        <end value="3600"/>
    </time>

</configuration>
-->

<queue-export xmlns:xsi="http://www.w3.org/2001/XMLSchema-instance" xsi:noNamespaceSchemaLocation="http://sumo.dlr.de/xsd/queue_file.xsd">
    <data timestep="0.00">
        <lanes/>
    </data>
    <data timestep="10.00">
        <lanes/>
    </data>
    <data timestep="20.00">
        <lanes/>
    </data>
    <data timestep="30.00">
        <lanes>
            <lane id="1_3i_1" queueing_time="9.00" queueing_length="3.00" queueing_length_experimental="3.00"/>
            <lane id="1_3i_3" queueing_time="6.00" queueing_length="3.00" queueing_length_experimental="3.00"/>
            <lane id="1_3i_4" queueing_time="1.00" queueing_length="3.00" queueing_length_experimental="3.00"/>
        </lanes>
    </data>
    <data timestep="40.00">
        <lanes>
            <lane id="1_3i_1" queueing_time="19.00" queueing_length="7.50" queueing_length_experimental="7.50"/>
            <lane id="1_3i_2" queueing_time="4.00" queueing_length="3.00" queueing_length_experimental="3.00"/>
            <lane id="1_3i_3" queueing_time="16.00" queueing_length="7.50" queueing_length_experimental="7.50"/>
            <lane id="1_3i_4" queueing_time="11.00" queueing_length="3.00" queueing_length_experimental="3.00"/>
        </lanes>
    </data>
    <data timestep="50.00">
        <lanes>
            <lane id="1_2i_1" queueing_time="4.00" queueing_length="3.00" queueing_length_experimental="3.00"/>
            <lane id="1_2i_2" queueing_time="1.00" queueing_length="3.00" queueing_length_experimental="3.00"/>
            <lane id="1_2i_3" queueing_time="0.00" queueing_length="0.00" queueing_length_experimental="3.00"/>
            <lane id="1_3i_1" queueing_time="29.00" queueing_length="7.50" queueing_length_experimental="7.50"/>
            <lane id="1_3i_2" queueing_time="14.00" queueing_length="7.50" queueing_length_experimental="7.50"/>
            <lane id="1_3i_3" queueing_time="26.00" queueing_length="7.50" queueing_length_experimental="7.50"/>
            <lane id="1_3i_4" queueing_time="21.00" queueing_length="3.00" queueing_length_experimental="3.00"/>
            <lane id="2_2i_0" queueing_time="1.00" queueing_length="6.60" queueing_length_experimental="6.60"/>
        </lanes>
    </data>
    <data timestep="60.00">
        <lanes>
            <lane id="1_2i_1" queueing_time="14.00" queueing_length="3.00" queueing_length_experimental="3.00"/>
            <lane id="1_2i_2" queueing_time="11.00" queueing_length="7.50" queueing_length_experimental="7.50"/>
            <lane id="1_2i_3" queueing_time="10.00" queueing_length="3.00" queueing_length_experimental="3.00"/>
            <lane id="1_3i_1" queueing_time="39.00" queueing_length="12.00" queueing_length_experimental="12.00"/>
            <lane id="1_3i_2" queueing_time="24.00" queueing_length="7.50" queueing_length_experimental="7.50"/>
            <lane id="1_3i_3" queueing_time="36.00" queueing_length="7.50" queueing_length_experimental="7.50"/>
            <lane id="1_3i_4" queueing_time="31.00" queueing_length="3.00" queueing_length_experimental="3.00"/>
            <lane id="3_3i_2" queueing_time="5.00" queueing_length="3.00" queueing_length_experimental="3.00"/>
        </lanes>
    </data>
    <data timestep="70.00">
        <lanes>
            <lane id="1_2i_1" queueing_time="24.00" queueing_length="3.00" queueing_length_experimental="3.00"/>
            <lane id="1_2i_2" queueing_time="21.00" queueing_length="12.00" queueing_length_experimental="12.00"/>
            <lane id="1_2i_3" queueing_time="20.00" queueing_length="3.00" queueing_length_experimental="3.00"/>
            <lane id="1_3i_1" queueing_time="49.00" queueing_length="12.00" queueing_length_experimental="12.00"/>
            <lane id="1_3i_2" queueing_time="34.00" queueing_length="12.00" queueing_length_experimental="12.00"/>
            <lane id="1_3i_3" queueing_time="46.00" queueing_length="7.50" queueing_length_experimental="7.50"/>
            <lane id="1_3i_4" queueing_time="41.00" queueing_length="7.50" queueing_length_experimental="7.50"/>
            <lane id="2_2i_1" queueing_time="8.00" queueing_length="7.50" queueing_length_experimental="7.50"/>
            <lane id="2_2i_2" queueing_time="4.00" queueing_length="3.00" queueing_length_experimental="3.00"/>
            <lane id="3_3i_2" queueing_time="15.00" queueing_length="3.00" queueing_length_experimental="3.00"/>
            <lane id="3_3i_3" queueing_time="10.00" queueing_length="7.50" queueing_length_experimental="7.50"/>
        </lanes>
    </data>
    <data timestep="80.00">
        <lanes>
            <lane id="1_2i_1" queueing_time="34.00" queueing_length="3.00" queueing_length_experimental="3.00"/>
            <lane id="1_2i_2" queueing_time="31.00" queueing_length="12.00" queueing_length_experimental="12.00"/>
            <lane id="1_2i_3" queueing_time="30.00" queueing_length="3.00" queueing_length_experimental="3.00"/>
            <lane id="1_3i_0" queueing_time="0.00" queueing_length="0.00" queueing_length_experimental="14.60"/>
            <lane id="1_3i_1" queueing_time="59.00" queueing_length="12.00" queueing_length_experimental="12.00"/>
            <lane id="1_3i_2" queueing_time="44.00" queueing_length="12.00" queueing_length_experimental="12.00"/>
            <lane id="1_3i_3" queueing_time="56.00" queueing_length="7.50" queueing_length_experimental="7.50"/>
            <lane id="1_3i_4" queueing_time="51.00" queueing_length="7.50" queueing_length_experimental="7.50"/>
            <lane id="2_0i_0" queueing_time="9.00" queueing_length="3.00" queueing_length_experimental="3.00"/>
            <lane id="2_0i_1" queueing_time="2.00" queueing_length="3.00" queueing_length_experimental="3.00"/>
            <lane id="2_2i_1" queueing_time="18.00" queueing_length="12.00" queueing_length_experimental="12.00"/>
            <lane id="2_2i_2" queueing_time="14.00" queueing_length="7.50" queueing_length_experimental="7.50"/>
            <lane id="2_2i_3" queueing_time="9.00" queueing_length="3.00" queueing_length_experimental="3.00"/>
            <lane id="2_2i_4" queueing_time="3.00" queueing_length="3.00" queueing_length_experimental="3.00"/>
            <lane id="3_3i_2" queueing_time="25.00" queueing_length="3.00" queueing_length_experimental="3.00"/>
            <lane id="3_3i_3" queueing_time="20.00" queueing_length="12.00" queueing_length_experimental="16.50"/>
        </lanes>
    </data>
    <data timestep="90.00">
        <lanes>
            <lane id="1_2i_1" queueing_time="44.00" queueing_length="3.00" queueing_length_experimental="3.00"/>
            <lane id="1_2i_2" queueing_time="41.00" queueing_length="25.51" queueing_length_experimental="25.51"/>
            <lane id="1_2i_3" queueing_time="40.00" queueing_length="3.00" queueing_length_experimental="3.00"/>
            <lane id="1_3i_0" queueing_time="0.00" queueing_length="0.00" queueing_length_experimental="14.60"/>
            <lane id="1_3i_1" queueing_time="69.00" queueing_length="16.50" queueing_length_experimental="16.50"/>
            <lane id="1_3i_2" queueing_time="54.00" queueing_length="12.00" queueing_length_experimental="12.00"/>
            <lane id="1_3i_3" queueing_time="66.00" queueing_length="7.50" queueing_length_experimental="7.50"/>
            <lane id="1_3i_4" queueing_time="61.00" queueing_length="7.50" queueing_length_experimental="7.50"/>
            <lane id="2_0i_0" queueing_time="19.00" queueing_length="3.00" queueing_length_experimental="3.00"/>
            <lane id="2_0i_1" queueing_time="12.00" queueing_length="3.00" queueing_length_experimental="3.00"/>
            <lane id="2_2i_1" queueing_time="28.00" queueing_length="12.00" queueing_length_experimental="12.00"/>
            <lane id="2_2i_2" queueing_time="24.00" queueing_length="12.00" queueing_length_experimental="12.00"/>
            <lane id="2_2i_3" queueing_time="19.00" queueing_length="7.50" queueing_length_experimental="7.50"/>
            <lane id="2_2i_4" queueing_time="13.00" queueing_length="3.00" queueing_length_experimental="3.00"/>
            <lane id="3_3i_2" queueing_time="35.00" queueing_length="3.00" queueing_length_experimental="3.00"/>
            <lane id="3_3i_3" queueing_time="30.00" queueing_length="25.51" queueing_length_experimental="25.51"/>
        </lanes>
    </data>
    <data timestep="100.00">
        <lanes>
            <lane id="1_2i_1" queueing_time="54.00" queueing_length="3.00" queueing_length_experimental="3.00"/>
            <lane id="1_2i_2" queueing_time="51.00" queueing_length="25.51" queueing_length_experimental="25.51"/>
            <lane id="1_2i_3" queueing_time="50.00" queueing_length="3.00" queueing_length_experimental="3.00"/>
            <lane id="1_3i_1" queueing_time="79.00" queueing_length="16.50" queueing_length_experimental="16.50"/>
            <lane id="1_3i_2" queueing_time="64.00" queueing_length="16.50" queueing_length_experimental="16.50"/>
            <lane id="1_3i_3" queueing_time="76.00" queueing_length="12.00" queueing_length_experimental="12.00"/>
            <lane id="1_3i_4" queueing_time="71.00" queueing_length="12.00" queueing_length_experimental="12.00"/>
            <lane id="2_0i_0" queueing_time="29.00" queueing_length="3.00" queueing_length_experimental="3.00"/>
            <lane id="2_0i_1" queueing_time="22.00" queueing_length="3.00" queueing_length_experimental="3.00"/>
            <lane id="2_0i_2" queueing_time="10.00" queueing_length="3.00" queueing_length_experimental="3.00"/>
            <lane id="2_0i_4" queueing_time="5.00" queueing_length="3.00" queueing_length_experimental="7.50"/>
            <lane id="2_2i_0" queueing_time="1.00" queueing_length="2.10" queueing_length_experimental="2.10"/>
            <lane id="2_2i_1" queueing_time="38.00" queueing_length="21.01" queueing_length_experimental="21.01"/>
            <lane id="2_2i_2" queueing_time="34.00" queueing_length="16.50" queueing_length_experimental="16.50"/>
            <lane id="2_2i_3" queueing_time="29.00" queueing_length="12.00" queueing_length_experimental="12.00"/>
            <lane id="2_2i_4" queueing_time="23.00" queueing_length="3.00" queueing_length_experimental="3.00"/>
            <lane id="3_3i_2" queueing_time="45.00" queueing_length="7.50" queueing_length_experimental="7.50"/>
            <lane id="3_3i_3" queueing_time="40.00" queueing_length="25.51" queueing_length_experimental="25.51"/>
        </lanes>
    </data>
    <data timestep="110.00">
        <lanes>
            <lane id="1_3i_1" queueing_time="89.00" queueing_length="21.01" queueing_length_experimental="21.01"/>
            <lane id="1_3i_2" queueing_time="74.00" queueing_length="16.50" queueing_length_experimental="16.50"/>
            <lane id="1_3i_3" queueing_time="86.00" queueing_length="12.00" queueing_length_experimental="12.00"/>
            <lane id="1_3i_4" queueing_time="81.00" queueing_length="12.00" queueing_length_experimental="12.00"/>
            <lane id="3_3i_2" queueing_time="55.00" queueing_length="12.00" queueing_length_experimental="12.00"/>
            <lane id="3_3i_3" queueing_time="50.00" queueing_length="25.51" queueing_length_experimental="25.51"/>
            <lane id="4_3i_4" queueing_time="1.00" queueing_length="3.00" queueing_length_experimental="3.00"/>
        </lanes>
    </data>
    <data timestep="120.00">
        <lanes>
            <lane id=":2_4_0" queueing_time="4.00" queueing_length="31.08" queueing_length_experimental="0.00"/>
            <lane id=":2_10_0" queueing_time="7.00" queueing_length="32.43" queueing_length_experimental="0.00"/>
            <lane id=":2_10_1" queueing_time="1.00" queueing_length="22.05" queueing_length_experimental="26.55"/>
            <lane id=":2_10_2" queueing_time="0.00" queueing_length="0.00" queueing_length_experimental="20.41"/>
            <lane id="1_3i_1" queueing_time="99.00" queueing_length="21.01" queueing_length_experimental="21.01"/>
            <lane id="1_3i_2" queueing_time="84.00" queueing_length="21.01" queueing_length_experimental="21.01"/>
            <lane id="1_3i_3" queueing_time="96.00" queueing_length="16.50" queueing_length_experimental="16.50"/>
            <lane id="1_3i_4" queueing_time="91.00" queueing_length="12.00" queueing_length_experimental="12.00"/>
            <lane id="2_2i_1" queueing_time="5.00" queueing_length="3.33" queueing_length_experimental="3.33"/>
            <lane id="3_3i_2" queueing_time="65.00" queueing_length="12.00" queueing_length_experimental="12.00"/>
            <lane id="3_3i_3" queueing_time="60.00" queueing_length="34.51" queueing_length_experimental="34.51"/>
            <lane id="4_3i_2" queueing_time="6.00" queueing_length="3.00" queueing_length_experimental="3.00"/>
            <lane id="4_3i_4" queueing_time="11.00" queueing_length="3.00" queueing_length_experimental="3.00"/>
        </lanes>
    </data>
    <data timestep="130.00">
        <lanes>
            <lane id=":2_4_0" queueing_time="0.00" queueing_length="0.00" queueing_length_experimental="25.41"/>
            <lane id="1_3i_1" queueing_time="109.00" queueing_length="21.01" queueing_length_experimental="21.01"/>
            <lane id="1_3i_2" queueing_time="94.00" queueing_length="21.01" queueing_length_experimental="21.01"/>
            <lane id="1_3i_3" queueing_time="106.00" queueing_length="21.01" queueing_length_experimental="21.01"/>
            <lane id="1_3i_4" queueing_time="101.00" queueing_length="21.01" queueing_length_experimental="21.01"/>
            <lane id="2_2i_0" queueing_time="0.00" queueing_length="0.00" queueing_length_experimental="10.10"/>
            <lane id="3_3i_2" queueing_time="75.00" queueing_length="16.50" queueing_length_experimental="16.50"/>
            <lane id="3_3i_3" queueing_time="70.00" queueing_length="39.01" queueing_length_experimental="39.01"/>
            <lane id="4_3i_2" queueing_time="16.00" queueing_length="3.00" queueing_length_experimental="3.00"/>
            <lane id="4_3i_4" queueing_time="21.00" queueing_length="3.00" queueing_length_experimental="3.00"/>
        </lanes>
    </data>
    <data timestep="140.00">
        <lanes>
            <lane id="1_3i_1" queueing_time="119.00" queueing_length="30.01" queueing_length_experimental="30.01"/>
            <lane id="1_3i_2" queueing_time="104.00" queueing_length="25.51" queueing_length_experimental="34.51"/>
            <lane id="1_3i_3" queueing_time="116.00" queueing_length="21.01" queueing_length_experimental="21.01"/>
            <lane id="1_3i_4" queueing_time="111.00" queueing_length="21.01" queueing_length_experimental="21.01"/>
            <lane id="2_2i_0" queueing_time="0.00" queueing_length="0.00" queueing_length_experimental="10.10"/>
            <lane id="3_3i_2" queueing_time="85.00" queueing_length="21.01" queueing_length_experimental="21.01"/>
            <lane id="3_3i_3" queueing_time="80.00" queueing_length="43.51" queueing_length_experimental="43.51"/>
            <lane id="4_3i_1" queueing_time="2.00" queueing_length="3.00" queueing_length_experimental="3.00"/>
            <lane id="4_3i_2" queueing_time="26.00" queueing_length="3.00" queueing_length_experimental="3.00"/>
            <lane id="4_3i_4" queueing_time="31.00" queueing_length="3.00" queueing_length_experimental="3.00"/>
        </lanes>
    </data>
    <data timestep="150.00">
        <lanes>
            <lane id="1_3i_0" queueing_time="1.00" queueing_length="2.10" queueing_length_experimental="2.10"/>
            <lane id="1_3i_1" queueing_time="129.00" queueing_length="30.01" queueing_length_experimental="30.01"/>
            <lane id="1_3i_2" queueing_time="114.00" queueing_length="30.01" queueing_length_experimental="30.01"/>
            <lane id="1_3i_3" queueing_time="126.00" queueing_length="25.51" queueing_length_experimental="25.51"/>
            <lane id="1_3i_4" queueing_time="121.00" queueing_length="25.51" queueing_length_experimental="25.51"/>
            <lane id="3_3i_2" queueing_time="95.00" queueing_length="30.01" queueing_length_experimental="30.01"/>
            <lane id="3_3i_3" queueing_time="90.00" queueing_length="43.51" queueing_length_experimental="43.51"/>
            <lane id="4_3i_1" queueing_time="12.00" queueing_length="3.00" queueing_length_experimental="3.00"/>
            <lane id="4_3i_2" queueing_time="36.00" queueing_length="3.00" queueing_length_experimental="3.00"/>
            <lane id="4_3i_4" queueing_time="41.00" queueing_length="3.00" queueing_length_experimental="3.00"/>
        </lanes>
    </data>
    <data timestep="160.00">
        <lanes>
            <lane id="1_2i_0" queueing_time="8.00" queueing_length="2.10" queueing_length_experimental="2.10"/>
            <lane id="1_2i_2" queueing_time="8.00" queueing_length="12.00" queueing_length_experimental="16.50"/>
            <lane id="1_3i_0" queueing_time="1.00" queueing_length="2.10" queueing_length_experimental="2.10"/>
            <lane id="2_2i_0" queueing_time="0.00" queueing_length="0.00" queueing_length_experimental="10.10"/>
            <lane id="3_3i_2" queueing_time="105.00" queueing_length="34.51" queueing_length_experimental="34.51"/>
            <lane id="3_3i_3" queueing_time="100.00" queueing_length="48.01" queueing_length_experimental="48.01"/>
            <lane id="4_3i_1" queueing_time="22.00" queueing_length="3.00" queueing_length_experimental="3.00"/>
            <lane id="4_3i_2" queueing_time="46.00" queueing_length="3.00" queueing_length_experimental="3.00"/>
            <lane id="4_3i_4" queueing_time="51.00" queueing_length="3.00" queueing_length_experimental="3.00"/>
        </lanes>
    </data>
    <data timestep="170.00">
        <lanes>
            <lane id="0_1i_4" queueing_time="5.00" queueing_length="7.50" queueing_length_experimental="7.50"/>
            <lane id="0_1i_5" queueing_time="3.00" queueing_length="12.00" queueing_length_experimental="12.00"/>
            <lane id="1_2i_0" queueing_time="18.00" queueing_length="6.60" queueing_length_experimental="6.60"/>
            <lane id="1_2i_1" queueing_time="1.00" queueing_length="3.00" queueing_length_experimental="3.00"/>
            <lane id="1_2i_2" queueing_time="18.00" queueing_length="30.01" queueing_length_experimental="30.01"/>
            <lane id="1_3i_0" queueing_time="1.00" queueing_length="2.10" queueing_length_experimental="2.10"/>
            <lane id="2_0i_2" queueing_time="0.00" queueing_length="0.00" queueing_length_experimental="3.00"/>
            <lane id="2_2i_0" queueing_time="0.00" queueing_length="0.00" queueing_length_experimental="10.10"/>
            <lane id="2_2i_1" queueing_time="5.00" queueing_length="3.00" queueing_length_experimental="3.00"/>
            <lane id="2_2i_2" queueing_time="3.00" queueing_length="3.00" queueing_length_experimental="3.00"/>
            <lane id="3_3i_2" queueing_time="115.00" queueing_length="39.01" queueing_length_experimental="39.01"/>
            <lane id="3_3i_3" queueing_time="110.00" queueing_length="52.51" queueing_length_experimental="52.51"/>
            <lane id="4_3i_1" queueing_time="32.00" queueing_length="3.00" queueing_length_experimental="3.00"/>
            <lane id="4_3i_2" queueing_time="56.00" queueing_length="3.00" queueing_length_experimental="3.00"/>
            <lane id="4_3i_4" queueing_time="61.00" queueing_length="3.00" queueing_length_experimental="3.00"/>
        </lanes>
    </data>
    <data timestep="180.00">
        <lanes>
            <lane id="0_1i_4" queueing_time="15.00" queueing_length="7.50" queueing_length_experimental="7.50"/>
            <lane id="0_1i_5" queueing_time="13.00" queueing_length="7.50" queueing_length_experimental="7.50"/>
            <lane id="1_2i_0" queueing_time="1.00" queueing_length="2.10" queueing_length_experimental="2.10"/>
            <lane id="1_2i_1" queueing_time="11.00" queueing_length="7.50" queueing_length_experimental="7.50"/>
            <lane id="1_2i_2" queueing_time="28.00" queueing_length="57.01" queueing_length_experimental="57.01"/>
            <lane id="1_2i_3" queueing_time="8.00" queueing_length="3.00" queueing_length_experimental="3.00"/>
            <lane id="1_3i_0" queueing_time="1.00" queueing_length="2.10" queueing_length_experimental="2.10"/>
            <lane id="2_0i_2" queueing_time="10.00" queueing_length="3.00" queueing_length_experimental="3.00"/>
            <lane id="2_0i_4" queueing_time="5.00" queueing_length="3.00" queueing_length_experimental="3.00"/>
            <lane id="2_2i_0" queueing_time="1.00" queueing_length="15.60" queueing_length_experimental="15.60"/>
            <lane id="2_2i_1" queueing_time="15.00" queueing_length="3.00" queueing_length_experimental="3.00"/>
            <lane id="2_2i_2" queueing_time="13.00" queueing_length="3.00" queueing_length_experimental="3.00"/>
            <lane id="3_3i_2" queueing_time="125.00" queueing_length="48.01" queueing_length_experimental="48.01"/>
            <lane id="3_3i_3" queueing_time="120.00" queueing_length="52.51" queueing_length_experimental="52.51"/>
            <lane id="4_3i_1" queueing_time="42.00" queueing_length="3.00" queueing_length_experimental="3.00"/>
            <lane id="4_3i_2" queueing_time="66.00" queueing_length="3.00" queueing_length_experimental="3.00"/>
            <lane id="4_3i_4" queueing_time="71.00" queueing_length="3.00" queueing_length_experimental="3.00"/>
        </lanes>
    </data>
    <data timestep="190.00">
        <lanes>
            <lane id="0_1i_4" queueing_time="25.00" queueing_length="7.50" queueing_length_experimental="7.50"/>
            <lane id="0_1i_5" queueing_time="23.00" queueing_length="7.50" queueing_length_experimental="7.50"/>
            <lane id="1_2i_0" queueing_time="8.00" queueing_length="15.60" queueing_length_experimental="15.60"/>
            <lane id="1_2i_1" queueing_time="21.00" queueing_length="7.50" queueing_length_experimental="15.50"/>
            <lane id="1_2i_2" queueing_time="38.00" queueing_length="61.51" queueing_length_experimental="61.51"/>
            <lane id="1_2i_3" queueing_time="18.00" queueing_length="3.00" queueing_length_experimental="3.00"/>
            <lane id="1_3i_0" queueing_time="1.00" queueing_length="2.10" queueing_length_experimental="2.10"/>
            <lane id="2_0i_0" queueing_time="10.00" queueing_length="3.00" queueing_length_experimental="3.00"/>
            <lane id="2_0i_2" queueing_time="20.00" queueing_length="3.00" queueing_length_experimental="3.00"/>
            <lane id="2_0i_4" queueing_time="15.00" queueing_length="3.00" queueing_length_experimental="3.00"/>
            <lane id="2_2i_0" queueing_time="1.00" queueing_length="15.60" queueing_length_experimental="15.60"/>
            <lane id="2_2i_1" queueing_time="25.00" queueing_length="7.50" queueing_length_experimental="7.50"/>
            <lane id="2_2i_2" queueing_time="23.00" queueing_length="3.00" queueing_length_experimental="3.00"/>
            <lane id="2_2i_3" queueing_time="1.00" queueing_length="3.00" queueing_length_experimental="3.00"/>
            <lane id="3_3i_2" queueing_time="135.00" queueing_length="48.01" queueing_length_experimental="48.01"/>
            <lane id="3_3i_3" queueing_time="130.00" queueing_length="61.51" queueing_length_experimental="61.51"/>
            <lane id="4_3i_1" queueing_time="52.00" queueing_length="3.00" queueing_length_experimental="3.00"/>
            <lane id="4_3i_2" queueing_time="76.00" queueing_length="3.00" queueing_length_experimental="3.00"/>
            <lane id="4_3i_4" queueing_time="81.00" queueing_length="3.00" queueing_length_experimental="3.00"/>
        </lanes>
    </data>
    <data timestep="200.00">
        <lanes>
            <lane id="0_1i_4" queueing_time="35.00" queueing_length="16.50" queueing_length_experimental="16.50"/>
            <lane id="0_1i_5" queueing_time="33.00" queueing_length="12.00" queueing_length_experimental="12.00"/>
            <lane id="1_2i_1" queueing_time="31.00" queueing_length="12.00" queueing_length_experimental="12.00"/>
            <lane id="1_2i_2" queueing_time="48.00" queueing_length="48.01" queueing_length_experimental="65.02"/>
            <lane id="1_2i_3" queueing_time="28.00" queueing_length="3.00" queueing_length_experimental="3.00"/>
            <lane id="1_3i_0" queueing_time="1.00" queueing_length="2.10" queueing_length_experimental="2.10"/>
            <lane id="2_0i_0" queueing_time="20.00" queueing_length="3.00" queueing_length_experimental="3.00"/>
            <lane id="2_0i_1" queueing_time="1.00" queueing_length="3.00" queueing_length_experimental="3.00"/>
            <lane id="2_0i_2" queueing_time="30.00" queueing_length="7.50" queueing_length_experimental="7.50"/>
            <lane id="2_0i_4" queueing_time="25.00" queueing_length="3.00" queueing_length_experimental="3.00"/>
            <lane id="2_2i_1" queueing_time="35.00" queueing_length="12.00" queueing_length_experimental="12.00"/>
            <lane id="2_2i_2" queueing_time="33.00" queueing_length="12.00" queueing_length_experimental="12.00"/>
            <lane id="2_2i_3" queueing_time="11.00" queueing_length="7.50" queueing_length_experimental="7.50"/>
            <lane id="3_3i_2" queueing_time="145.00" queueing_length="48.01" queueing_length_experimental="48.01"/>
            <lane id="3_3i_3" queueing_time="140.00" queueing_length="70.52" queueing_length_experimental="70.52"/>
            <lane id="4_3i_0" queueing_time="0.00" queueing_length="0.00" queueing_length_experimental="15.60"/>
            <lane id="4_3i_1" queueing_time="62.00" queueing_length="3.00" queueing_length_experimental="3.00"/>
            <lane id="4_3i_2" queueing_time="86.00" queueing_length="3.00" queueing_length_experimental="3.00"/>
            <lane id="4_3i_4" queueing_time="91.00" queueing_length="3.00" queueing_length_experimental="3.00"/>
        </lanes>
    </data>
    <data timestep="210.00">
        <lanes>
            <lane id="1_2i_1" queueing_time="41.00" queueing_length="12.00" queueing_length_experimental="12.00"/>
            <lane id="1_2i_2" queueing_time="58.00" queueing_length="61.51" queueing_length_experimental="61.51"/>
            <lane id="1_2i_3" queueing_time="38.00" queueing_length="3.00" queueing_length_experimental="3.00"/>
            <lane id="1_3i_1" queueing_time="10.00" queueing_length="7.50" queueing_length_experimental="7.50"/>
            <lane id="1_3i_2" queueing_time="7.00" queueing_length="7.50" queueing_length_experimental="7.50"/>
            <lane id="3_3i_2" queueing_time="58.00" queueing_length="48.01" queueing_length_experimental="48.01"/>
            <lane id="3_3i_3" queueing_time="93.00" queueing_length="79.52" queueing_length_experimental="75.02"/>
            <lane id="4_3i_0" queueing_time="1.00" queueing_length="38.11" queueing_length_experimental="55.11"/>
        </lanes>
    </data>
    <data timestep="220.00">
        <lanes>
            <lane id=":2_10_0" queueing_time="2.00" queueing_length="27.93" queueing_length_experimental="22.43"/>
            <lane id=":2_10_1" queueing_time="2.00" queueing_length="26.55" queueing_length_experimental="26.55"/>
            <lane id=":2_10_2" queueing_time="3.00" queueing_length="29.41" queueing_length_experimental="23.91"/>
            <lane id="1_2i_1" queueing_time="51.00" queueing_length="21.01" queueing_length_experimental="21.01"/>
            <lane id="1_2i_2" queueing_time="68.00" queueing_length="48.01" queueing_length_experimental="48.01"/>
            <lane id="1_2i_3" queueing_time="48.00" queueing_length="3.00" queueing_length_experimental="3.00"/>
            <lane id="1_3i_1" queueing_time="20.00" queueing_length="7.50" queueing_length_experimental="7.50"/>
            <lane id="1_3i_2" queueing_time="17.00" queueing_length="7.50" queueing_length_experimental="7.50"/>
            <lane id="1_3i_3" queueing_time="8.00" queueing_length="7.50" queueing_length_experimental="7.50"/>
            <lane id="1_3i_4" queueing_time="3.00" queueing_length="3.00" queueing_length_experimental="3.00"/>
            <lane id="3_3i_3" queueing_time="14.00" queueing_length="84.02" queueing_length_experimental="74.02"/>
            <lane id="4_3i_0" queueing_time="1.00" queueing_length="38.11" queueing_length_experimental="55.11"/>
        </lanes>
    </data>
    <data timestep="230.00">
        <lanes>
            <lane id="1_2i_1" queueing_time="61.00" queueing_length="21.01" queueing_length_experimental="21.01"/>
            <lane id="1_2i_2" queueing_time="78.00" queueing_length="52.51" queueing_length_experimental="52.51"/>
            <lane id="1_2i_3" queueing_time="58.00" queueing_length="3.00" queueing_length_experimental="3.00"/>
            <lane id="1_3i_1" queueing_time="30.00" queueing_length="12.00" queueing_length_experimental="12.00"/>
            <lane id="1_3i_2" queueing_time="27.00" queueing_length="7.50" queueing_length_experimental="7.50"/>
            <lane id="1_3i_3" queueing_time="18.00" queueing_length="7.50" queueing_length_experimental="7.50"/>
            <lane id="1_3i_4" queueing_time="13.00" queueing_length="3.00" queueing_length_experimental="3.00"/>
            <lane id="4_3i_0" queueing_time="1.00" queueing_length="38.11" queueing_length_experimental="38.11"/>
        </lanes>
    </data>
    <data timestep="240.00">
        <lanes>